# vtk DataFile Version 3.0
Gmsh mesh with velocity and pressure fields
ASCII
DATASET UNSTRUCTURED_GRID
POINTS 1045 double
1.0000000000000000e+00 0.0000000000000000e+00 0.0000000000000000e+00
2.0000000000000000e+00 0.0000000000000000e+00 0.0000000000000000e+00
9.9413795715435960e-01 1.0811901842394160e-01 0.0000000000000000e+00
9.7662055571008677e-01 2.1497044021102371e-01 0.0000000000000000e+00
9.4765317118280257e-01 3.1930153013597939e-01 0.0000000000000000e+00
9.0757541967095734e-01 4.1988910156026399e-01 0.0000000000000000e+00
8.5685717616758961e-01 5.1555385717702107e-01 0.0000000000000000e+00
7.9609306570564442e-01 6.0517421519376435e-01 0.0000000000000000e+00
7.2599549192313173e-01 6.8769945885342243e-01 0.0000000000000000e+00
6.4738628478182869e-01 7.6216205512763557e-01 0.0000000000000000e+00
5.6118706536238361e-01 8.2768899815688968e-01 0.0000000000000000e+00
4.6840844069979171e-01 8.8351204444602205e-01 0.0000000000000000e+00
3.7013815533991640e-01 9.2897671981679064e-01 0.0000000000000000e+00
2.6752833852922309e-01 9.6354999251922235e-01 0.0000000000000000e+00
1.6178199655276729e-01 9.8682652254152570e-01 0.0000000000000000e+00
5.4138908585420267e-02 9.9853341385112371e-01 0.0000000000000000e+00
-5.4138908585414612e-02 9.9853341385112404e-01 0.0000000000000000e+00
-1.6178199655276140e-01 9.8682652254152670e-01 0.0000000000000000e+00
-2.6752833852921742e-01 9.6354999251922391e-01 0.0000000000000000e+00
-3.7013815533991112e-01 9.2897671981679275e-01 0.0000000000000000e+00
-4.6840844069978688e-01 8.8351204444602460e-01 0.0000000000000000e+00
-5.6118706536237972e-01 8.2768899815689234e-01 0.0000000000000000e+00
-6.4738628478182525e-01 7.6216205512763846e-01 0.0000000000000000e+00
-7.2599549192312873e-01 6.8769945885342554e-01 0.0000000000000000e+00
-7.9609306570564187e-01 6.0517421519376757e-01 0.0000000000000000e+00
-8.5685717616758772e-01 5.1555385717702429e-01 0.0000000000000000e+00
-9.0757541967095579e-01 4.1988910156026732e-01 0.0000000000000000e+00
-9.4765317118280135e-01 3.1930153013598322e-01 0.0000000000000000e+00
-9.7662055571008599e-01 2.1497044021102729e-01 0.0000000000000000e+00
-9.9413795715435926e-01 1.0811901842394460e-01 0.0000000000000000e+00
-1.0000000000000000e+00 2.7869999390151108e-15 0.0000000000000000e+00
-9.9413795715435993e-01 -1.0811901842393901e-01 0.0000000000000000e+00
-9.7662055571008732e-01 -2.1497044021102099e-01 0.0000000000000000e+00
-9.4765317118280334e-01 -3.1930153013597751e-01 0.0000000000000000e+00
-9.0757541967095856e-01 -4.1988910156026138e-01 0.0000000000000000e+00
-8.5685717616759083e-01 -5.1555385717701918e-01 0.0000000000000000e+00
-7.9609306570564553e-01 -6.0517421519376280e-01 0.0000000000000000e+00
-7.2599549192313284e-01 -6.8769945885342121e-01 0.0000000000000000e+00
-6.4738628478183091e-01 -7.6216205512763369e-01 0.0000000000000000e+00
-5.6118706536238550e-01 -8.2768899815688846e-01 0.0000000000000000e+00
-4.6840844069979382e-01 -8.8351204444602094e-01 0.0000000000000000e+00
-3.7013815533991778e-01 -9.2897671981679009e-01 0.0000000000000000e+00
-2.6752833852922392e-01 -9.6354999251922213e-01 0.0000000000000000e+00
-1.6178199655276829e-01 -9.8682652254152559e-01 0.0000000000000000e+00
-5.4138908585420607e-02 -9.9853341385112371e-01 0.0000000000000000e+00
5.4138908585414917e-02 -9.9853341385112404e-01 0.0000000000000000e+00
1.6178199655276260e-01 -9.8682652254152647e-01 0.0000000000000000e+00
2.6752833852921931e-01 -9.6354999251922335e-01 0.0000000000000000e+00
3.7013815533991251e-01 -9.2897671981679220e-01 0.0000000000000000e+00
4.6840844069978799e-01 -8.8351204444602405e-01 0.0000000000000000e+00
5.6118706536238072e-01 -8.2768899815689168e-01 0.0000000000000000e+00
6.4738628478182647e-01 -7.6216205512763746e-01 0.0000000000000000e+00
7.2599549192313018e-01 -6.8769945885342398e-01 0.0000000000000000e+00
7.9609306570564287e-01 -6.0517421519376624e-01 0.0000000000000000e+00
8.5685717616758883e-01 -5.1555385717702251e-01 0.0000000000000000e+00
9.0757541967095656e-01 -4.1988910156026582e-01 0.0000000000000000e+00
9.4765317118280223e-01 -3.1930153013598073e-01 0.0000000000000000e+00
9.7662055571008666e-01 -2.1497044021102441e-01 0.0000000000000000e+00
9.9413795715435949e-01 -1.0811901842394250e-01 0.0000000000000000e+00
1.9970156069656559e+00 1.0921843038421990e-01 0.0000000000000000e+00
1.9880713344644070e+00 2.1811091004557909e-01 0.0000000000000000e+00
1.9731938757208041e+00 3.2635246102628379e-01 0.0000000000000000e+00
1.9524276309190891e+00 4.3362004799556070e-01 0.0000000000000000e+00
1.9258345746955989e+00 5.3959354231404766e-01 0.0000000000000000e+00
1.8934940711820880e+00 6.4395667742347562e-01 0.0000000000000000e+00
1.8555026371519689e+00 7.4639799271038165e-01 0.0000000000000000e+00
1.8119736539763280e+00 8.4661176302699448e-01 0.0000000000000000e+00
1.7630370292493440e+00 9.4429891109523589e-01 0.0000000000000000e+00
1.7088388090929780e+00 1.0391679000708660e+00 0.0000000000000000e+00
1.6495407422979380e+00 1.1309356036040099e+00 0.0000000000000000e+00
1.5853197976017179e+00 1.2193281507994671e+00 0.0000000000000000e+00
1.5163676355443270e+00 1.3040817435550991e+00 0.0000000000000000e+00
1.4428900364779129e+00 1.3849434438390491e+00 0.0000000000000000e+00
1.3651062864373100e+00 1.4616719285562461e+00 0.0000000000000000e+00
1.2832485227043251e+00 1.5340382097513641e+00 0.0000000000000000e+00
1.1975610410188480e+00 1.6018263179988821e+00 0.0000000000000000e+00
1.1082995665043520e+00 1.6648339469407349e+00 0.0000000000000000e+00
1.0157304904836151e+00 1.7228730570479980e+00 0.0000000000000000e+00
9.2013007546230752e-01 1.7757704368047491e+00 0.0000000000000000e+00
8.2178363065310023e-01 1.8233682196393051e+00 0.0000000000000000e+00
7.2098466050083354e-01 1.8655243550601259e+00 0.0000000000000000e+00
6.1803398874989912e-01 1.9021130325903060e+00 0.0000000000000000e+00
5.1323886066795177e-01 1.9330250572354879e+00 0.0000000000000000e+00
4.0691202610527227e-01 1.9581681753646449e+00 0.0000000000000000e+00
2.9937080612629391e-01 1.9774673500311690e+00 0.0000000000000000e+00
1.9093614599882569e-01 1.9908649849126170e+00 0.0000000000000000e+00
8.1931657367234179e-02 1.9983210962007729e+00 0.0000000000000000e+00
-2.7317347531895939e-02 1.9998134319290439e+00 0.0000000000000000e+00
-1.3648482672933601e-01 1.9953375383810790e+00 0.0000000000000000e+00
-2.4524498156059049e-01 1.9849067733824040e+00 0.0000000000000000e+00
-3.5327322897716817e-01 1.9685522664354240e+00 0.0000000000000000e+00
-4.6024717022996620e-01 1.9463228258167520e+00 0.0000000000000000e+00
-5.6584755303385337e-01 1.9182847929141280e+00 0.0000000000000000e+00
-6.6975922434196522e-01 1.8845218442376430e+00 0.0000000000000000e+00
-7.7167207088626411e-01 1.8451347416961461e+00 0.0000000000000000e+00
-8.7128194467741171e-01 1.8002410318841049e+00 0.0000000000000000e+00
-9.6829157070191485e-01 1.7499746952763680e+00 0.0000000000000000e+00
-1.0624114341076010e+00 1.6944857463777709e+00 0.0000000000000000e+00
-1.1533606442297291e+00 1.6339397860208880e+00 0.0000000000000000e+00
-1.2408677728791311e+00 1.5685175071480670e+00 0.0000000000000000e+00
-1.3246716643906100e+00 1.4984141555526660e+00 0.0000000000000000e+00
-1.4045222150140899e+00 1.4238389471888711e+00 0.0000000000000000e+00
-1.4801811193225001e+00 1.3450144437890590e+00 0.0000000000000000e+00
-1.5514225814088360e+00 1.2621758886521099e+00 0.0000000000000000e+00
-1.6180339887498920e+00 1.1755705045849509e+00 0.0000000000000000e+00
-1.6798165467255901e+00 1.0854567560925279e+00 0.0000000000000000e+00
-1.7365858719002640e+00 9.9210357801814120e-01 0.0000000000000000e+00
-1.7881725422953001e+00 8.9578957293616879e-01 0.0000000000000000e+00
-1.8344226030109041e+00 7.9680217969248845e-01 0.0000000000000000e+00
-1.8751980256880381e+00 6.9543681557398385e-01 0.0000000000000000e+00
-1.9103771204392941e+00 5.9199599466725372e-01 0.0000000000000000e+00
-1.9398548990193409e+00 4.8678842503767739e-01 0.0000000000000000e+00
-1.9635433881511160e+00 3.8012808742322107e-01 0.0000000000000000e+00
-1.9813718920726611e+00 2.7233329819249952e-01 0.0000000000000000e+00
-1.9932872035210580e+00 1.6372575936363221e-01 0.0000000000000000e+00
-1.9992537625238209e+00 5.4629598518977467e-02 0.0000000000000000e+00
-1.9992537625238209e+00 -5.4629598518966330e-02 0.0000000000000000e+00
-1.9932872035210600e+00 -1.6372575936362110e-01 0.0000000000000000e+00
-1.9813718920726620e+00 -2.7233329819248753e-01 0.0000000000000000e+00
-1.9635433881511180e+00 -3.8012808742320919e-01 0.0000000000000000e+00
-1.9398548990193440e+00 -4.8678842503766567e-01 0.0000000000000000e+00
-1.9103771204392981e+00 -5.9199599466724218e-01 0.0000000000000000e+00
-1.8751980256880429e+00 -6.9543681557397252e-01 0.0000000000000000e+00
-1.8344226030109081e+00 -7.9680217969247746e-01 0.0000000000000000e+00
-1.7881725422953050e+00 -8.9578957293615880e-01 0.0000000000000000e+00
-1.7365858719002700e+00 -9.9210357801813076e-01 0.0000000000000000e+00
-1.6798165467255961e+00 -1.0854567560925179e+00 0.0000000000000000e+00
-1.6180339887498989e+00 -1.1755705045849409e+00 0.0000000000000000e+00
-1.5514225814088440e+00 -1.2621758886521000e+00 0.0000000000000000e+00
-1.4801811193225081e+00 -1.3450144437890501e+00 0.0000000000000000e+00
-1.4045222150140990e+00 -1.4238389471888631e+00 0.0000000000000000e+00
-1.3246716643906209e+00 -1.4984141555526569e+00 0.0000000000000000e+00
-1.2408677728791420e+00 -1.5685175071480579e+00 0.0000000000000000e+00
-1.1533606442297399e+00 -1.6339397860208800e+00 0.0000000000000000e+00
-1.0624114341076141e+00 -1.6944857463777629e+00 0.0000000000000000e+00
-9.6829157070192839e-01 -1.7499746952763611e+00 0.0000000000000000e+00
-8.7128194467742415e-01 -1.8002410318840989e+00 0.0000000000000000e+00
-7.7167207088627643e-01 -1.8451347416961410e+00 0.0000000000000000e+00
-6.6975922434197943e-01 -1.8845218442376379e+00 0.0000000000000000e+00
-5.6584755303386702e-01 -1.9182847929141240e+00 0.0000000000000000e+00
-4.6024717022997957e-01 -1.9463228258167491e+00 0.0000000000000000e+00
[...]
POINT_DATA 1045
VECTORS velocity double
0.0000000000000000e+00 0.0000000000000000e+00 0.0000000000000000e+00
0.0000000000000000e+00 0.0000000000000000e+00 0.0000000000000000e+00
-1.0811901842394160e-01 9.9413795715435960e-01 0.0000000000000000e+00
-2.1497044021102371e-01 9.7662055571008677e-01 0.0000000000000000e+00
-3.1930153013597939e-01 9.4765317118280257e-01 0.0000000000000000e+00
-4.1988910156026399e-01 9.0757541967095734e-01 0.0000000000000000e+00
-5.1555385717702107e-01 8.5685717616758961e-01 0.0000000000000000e+00
-6.0517421519376435e-01 7.9609306570564442e-01 0.0000000000000000e+00
-6.8769945885342243e-01 7.2599549192313173e-01 0.0000000000000000e+00
-7.6216205512763557e-01 6.4738628478182869e-01 0.0000000000000000e+00
-8.2768899815688968e-01 5.6118706536238361e-01 0.0000000000000000e+00
-8.8351204444602205e-01 4.6840844069979171e-01 0.0000000000000000e+00
-9.2897671981679064e-01 3.7013815533991640e-01 0.0000000000000000e+00
-9.6354999251922235e-01 2.6752833852922309e-01 0.0000000000000000e+00
-9.8682652254152570e-01 1.6178199655276729e-01 0.0000000000000000e+00
-9.9853341385112371e-01 5.4138908585420267e-02 0.0000000000000000e+00
-9.9853341385112404e-01 -5.4138908585414612e-02 0.0000000000000000e+00
-9.8682652254152670e-01 -1.6178199655276140e-01 0.0000000000000000e+00
-9.6354999251922391e-01 -2.6752833852921742e-01 0.0000000000000000e+00
-9.2897671981679275e-01 -3.7013815533991112e-01 0.0000000000000000e+00
-8.8351204444602460e-01 -4.6840844069978688e-01 0.0000000000000000e+00
-8.2768899815689234e-01 -5.6118706536237972e-01 0.0000000000000000e+00
-7.6216205512763846e-01 -6.4738628478182525e-01 0.0000000000000000e+00
-6.8769945885342554e-01 -7.2599549192312873e-01 0.0000000000000000e+00
-6.0517421519376757e-01 -7.9609306570564187e-01 0.0000000000000000e+00
-5.1555385717702429e-01 -8.5685717616758772e-01 0.0000000000000000e+00
-4.1988910156026732e-01 -9.0757541967095579e-01 0.0000000000000000e+00
-3.1930153013598322e-01 -9.4765317118280135e-01 0.0000000000000000e+00
-2.1497044021102729e-01 -9.7662055571008599e-01 0.0000000000000000e+00
-1.0811901842394460e-01 -9.9413795715435926e-01 0.0000000000000000e+00
-2.7869999390151108e-15 -1.0000000000000000e+00 0.0000000000000000e+00
1.0811901842393901e-01 -9.9413795715435993e-01 0.0000000000000000e+00
2.1497044021102099e-01 -9.7662055571008732e-01 0.0000000000000000e+00
3.1930153013597751e-01 -9.4765317118280334e-01 0.0000000000000000e+00
4.1988910156026138e-01 -9.0757541967095856e-01 0.0000000000000000e+00
5.1555385717701918e-01 -8.5685717616759083e-01 0.0000000000000000e+00
6.0517421519376280e-01 -7.9609306570564553e-01 0.0000000000000000e+00
6.8769945885342121e-01 -7.2599549192313284e-01 0.0000000000000000e+00
7.6216205512763369e-01 -6.4738628478183091e-01 0.0000000000000000e+00
8.2768899815688846e-01 -5.6118706536238550e-01 0.0000000000000000e+00
8.8351204444602094e-01 -4.6840844069979382e-01 0.0000000000000000e+00
9.2897671981679009e-01 -3.7013815533991778e-01 0.0000000000000000e+00
9.6354999251922213e-01 -2.6752833852922392e-01 0.0000000000000000e+00
9.8682652254152559e-01 -1.6178199655276829e-01 0.0000000000000000e+00
9.9853341385112371e-01 -5.4138908585420607e-02 0.0000000000000000e+00
9.9853341385112404e-01 5.4138908585414917e-02 0.0000000000000000e+00
9.8682652254152647e-01 1.6178199655276260e-01 0.0000000000000000e+00
9.6354999251922335e-01 2.6752833852921931e-01 0.0000000000000000e+00
9.2897671981679220e-01 3.7013815533991251e-01 0.0000000000000000e+00
8.8351204444602405e-01 4.6840844069978799e-01 0.0000000000000000e+00
8.2768899815689168e-01 5.6118706536238072e-01 0.0000000000000000e+00
7.6216205512763746e-01 6.4738628478182647e-01 0.0000000000000000e+00
6.8769945885342398e-01 7.2599549192313018e-01 0.0000000000000000e+00
6.0517421519376624e-01 7.9609306570564287e-01 0.0000000000000000e+00
5.1555385717702251e-01 8.5685717616758883e-01 0.0000000000000000e+00
4.1988910156026582e-01 9.0757541967095656e-01 0.0000000000000000e+00
3.1930153013598073e-01 9.4765317118280223e-01 0.0000000000000000e+00
2.1497044021102441e-01 9.7662055571008666e-01 0.0000000000000000e+00
1.0811901842394250e-01 9.9413795715435949e-01 0.0000000000000000e+00
0.0000000000000000e+00 0.0000000000000000e+00 0.0000000000000000e+00
0.0000000000000000e+00 0.0000000000000000e+00 0.0000000000000000e+00
0.0000000000000000e+00 0.0000000000000000e+00 0.0000000000000000e+00
0.0000000000000000e+00 0.0000000000000000e+00 0.0000000000000000e+00
0.0000000000000000e+00 0.0000000000000000e+00 0.0000000000000000e+00
0.0000000000000000e+00 0.0000000000000000e+00 0.0000000000000000e+00
0.0000000000000000e+00 0.0000000000000000e+00 0.0000000000000000e+00
0.0000000000000000e+00 0.0000000000000000e+00 0.0000000000000000e+00
0.0000000000000000e+00 0.0000000000000000e+00 0.0000000000000000e+00
0.0000000000000000e+00 0.0000000000000000e+00 0.0000000000000000e+00
0.0000000000000000e+00 0.0000000000000000e+00 0.0000000000000000e+00
0.0000000000000000e+00 0.0000000000000000e+00 0.0000000000000000e+00
0.0000000000000000e+00 0.0000000000000000e+00 0.0000000000000000e+00
0.0000000000000000e+00 0.0000000000000000e+00 0.0000000000000000e+00
0.0000000000000000e+00 0.0000000000000000e+00 0.0000000000000000e+00
0.0000000000000000e+00 0.0000000000000000e+00 0.0000000000000000e+00
0.0000000000000000e+00 0.0000000000000000e+00 0.0000000000000000e+00
0.0000000000000000e+00 0.0000000000000000e+00 0.0000000000000000e+00
0.0000000000000000e+00 0.0000000000000000e+00 0.0000000000000000e+00
0.0000000000000000e+00 0.0000000000000000e+00 0.0000000000000000e+00
0.0000000000000000e+00 0.0000000000000000e+00 0.0000000000000000e+00
0.0000000000000000e+00 0.0000000000000000e+00 0.0000000000000000e+00
0.0000000000000000e+00 0.0000000000000000e+00 0.0000000000000000e+00
0.0000000000000000e+00 0.0000000000000000e+00 0.0000000000000000e+00
0.0000000000000000e+00 0.0000000000000000e+00 0.0000000000000000e+00
0.0000000000000000e+00 0.0000000000000000e+00 0.0000000000000000e+00
0.0000000000000000e+00 0.0000000000000000e+00 0.0000000000000000e+00
0.0000000000000000e+00 0.0000000000000000e+00 0.0000000000000000e+00
0.0000000000000000e+00 0.0000000000000000e+00 0.0000000000000000e+00
0.0000000000000000e+00 0.0000000000000000e+00 0.0000000000000000e+00
0.0000000000000000e+00 0.0000000000000000e+00 0.0000000000000000e+00
0.0000000000000000e+00 0.0000000000000000e+00 0.0000000000000000e+00
0.0000000000000000e+00 0.0000000000000000e+00 0.0000000000000000e+00
0.0000000000000000e+00 0.0000000000000000e+00 0.0000000000000000e+00
0.0000000000000000e+00 0.0000000000000000e+00 0.0000000000000000e+00
0.0000000000000000e+00 0.0000000000000000e+00 0.0000000000000000e+00
0.0000000000000000e+00 0.0000000000000000e+00 0.0000000000000000e+00
0.0000000000000000e+00 0.0000000000000000e+00 0.0000000000000000e+00
0.0000000000000000e+00 0.0000000000000000e+00 0.0000000000000000e+00
0.0000000000000000e+00 0.0000000000000000e+00 0.0000000000000000e+00
0.0000000000000000e+00 0.0000000000000000e+00 0.0000000000000000e+00
0.0000000000000000e+00 0.0000000000000000e+00 0.0000000000000000e+00
0.0000000000000000e+00 0.0000000000000000e+00 0.0000000000000000e+00
0.0000000000000000e+00 0.0000000000000000e+00 0.0000000000000000e+00
0.0000000000000000e+00 0.0000000000000000e+00 0.0000000000000000e+00
0.0000000000000000e+00 0.0000000000000000e+00 0.0000000000000000e+00
0.0000000000000000e+00 0.0000000000000000e+00 0.0000000000000000e+00
0.0000000000000000e+00 0.0000000000000000e+00 0.0000000000000000e+00
0.0000000000000000e+00 0.0000000000000000e+00 0.0000000000000000e+00
0.0000000000000000e+00 0.0000000000000000e+00 0.0000000000000000e+00
0.0000000000000000e+00 0.0000000000000000e+00 0.0000000000000000e+00
0.0000000000000000e+00 0.0000000000000000e+00 0.0000000000000000e+00
0.0000000000000000e+00 0.0000000000000000e+00 0.0000000000000000e+00
0.0000000000000000e+00 0.0000000000000000e+00 0.0000000000000000e+00
0.0000000000000000e+00 0.0000000000000000e+00 0.0000000000000000e+00
0.0000000000000000e+00 0.0000000000000000e+00 0.0000000000000000e+00
0.0000000000000000e+00 0.0000000000000000e+00 0.0000000000000000e+00
0.0000000000000000e+00 0.0000000000000000e+00 0.0000000000000000e+00
0.0000000000000000e+00 0.0000000000000000e+00 0.0000000000000000e+00
0.0000000000000000e+00 0.0000000000000000e+00 0.0000000000000000e+00
0.0000000000000000e+00 0.0000000000000000e+00 0.0000000000000000e+00
0.0000000000000000e+00 0.0000000000000000e+00 0.0000000000000000e+00
0.0000000000000000e+00 0.0000000000000000e+00 0.0000000000000000e+00
0.0000000000000000e+00 0.0000000000000000e+00 0.0000000000000000e+00
0.0000000000000000e+00 0.0000000000000000e+00 0.0000000000000000e+00
0.0000000000000000e+00 0.0000000000000000e+00 0.0000000000000000e+00
0.0000000000000000e+00 0.0000000000000000e+00 0.0000000000000000e+00
0.0000000000000000e+00 0.0000000000000000e+00 0.0000000000000000e+00
0.0000000000000000e+00 0.0000000000000000e+00 0.0000000000000000e+00
0.0000000000000000e+00 0.0000000000000000e+00 0.0000000000000000e+00
0.0000000000000000e+00 0.0000000000000000e+00 0.0000000000000000e+00
0.0000000000000000e+00 0.0000000000000000e+00 0.0000000000000000e+00
0.0000000000000000e+00 0.0000000000000000e+00 0.0000000000000000e+00
0.0000000000000000e+00 0.0000000000000000e+00 0.0000000000000000e+00
0.0000000000000000e+00 0.0000000000000000e+00 0.0000000000000000e+00
0.0000000000000000e+00 0.0000000000000000e+00 0.0000000000000000e+00
0.0000000000000000e+00 0.0000000000000000e+00 0.0000000000000000e+00
0.0000000000000000e+00 0.0000000000000000e+00 0.0000000000000000e+00
0.0000000000000000e+00 0.0000000000000000e+00 0.0000000000000000e+00
0.0000000000000000e+00 0.0000000000000000e+00 0.0000000000000000e+00
0.0000000000000000e+00 0.0000000000000000e+00 0.0000000000000000e+00
0.0000000000000000e+00 0.0000000000000000e+00 0.0000000000000000e+00
0.0000000000000000e+00 0.0000000000000000e+00 0.0000000000000000e+00
0.0000000000000000e+00 0.0000000000000000e+00 0.0000000000000000e+00
0.0000000000000000e+00 0.0000000000000000e+00 0.0000000000000000e+00
0.0000000000000000e+00 0.0000000000000000e+00 0.0000000000000000e+00
0.0000000000000000e+00 0.0000000000000000e+00 0.0000000000000000e+00
0.0000000000000000e+00 0.0000000000000000e+00 0.0000000000000000e+00
0.0000000000000000e+00 0.0000000000000000e+00 0.0000000000000000e+00
0.0000000000000000e+00 0.0000000000000000e+00 0.0000000000000000e+00
0.0000000000000000e+00 0.0000000000000000e+00 0.0000000000000000e+00
0.0000000000000000e+00 0.0000000000000000e+00 0.0000000000000000e+00
0.0000000000000000e+00 0.0000000000000000e+00 0.0000000000000000e+00
0.0000000000000000e+00 0.0000000000000000e+00 0.0000000000000000e+00
0.0000000000000000e+00 0.0000000000000000e+00 0.0000000000000000e+00
0.0000000000000000e+00 0.0000000000000000e+00 0.0000000000000000e+00
0.0000000000000000e+00 0.0000000000000000e+00 0.0000000000000000e+00
0.0000000000000000e+00 0.0000000000000000e+00 0.0000000000000000e+00
0.0000000000000000e+00 0.0000000000000000e+00 0.0000000000000000e+00
0.0000000000000000e+00 0.0000000000000000e+00 0.0000000000000000e+00
0.0000000000000000e+00 0.0000000000000000e+00 0.0000000000000000e+00
0.0000000000000000e+00 0.0000000000000000e+00 0.0000000000000000e+00
0.0000000000000000e+00 0.0000000000000000e+00 0.0000000000000000e+00
0.0000000000000000e+00 0.0000000000000000e+00 0.0000000000000000e+00
0.0000000000000000e+00 0.0000000000000000e+00 0.0000000000000000e+00
0.0000000000000000e+00 0.0000000000000000e+00 0.0000000000000000e+00
0.0000000000000000e+00 0.0000000000000000e+00 0.0000000000000000e+00
0.0000000000000000e+00 0.0000000000000000e+00 0.0000000000000000e+00
0.0000000000000000e+00 0.0000000000000000e+00 0.0000000000000000e+00
0.0000000000000000e+00 0.0000000000000000e+00 0.0000000000000000e+00
0.0000000000000000e+00 0.0000000000000000e+00 0.0000000000000000e+00
0.0000000000000000e+00 0.0000000000000000e+00 0.0000000000000000e+00
0.0000000000000000e+00 0.0000000000000000e+00 0.0000000000000000e+00
0.0000000000000000e+00 0.0000000000000000e+00 0.0000000000000000e+00
3.1298128059567665e-02 -8.5818260324496598e-01 0.0000000000000000e+00
-2.3416619664442040e-01 -8.3243410273511531e-01 0.0000000000000000e+00
3.1171860965811438e-01 -8.0264866676847269e-01 0.0000000000000000e+00
-4.9057013248191850e-01 -7.0186302722732830e-01 0.0000000000000000e+00
5.5040513981461714e-01 -6.6472959348118388e-01 0.0000000000000000e+00
-6.8864758113069136e-01 -5.0732539947703248e-01 0.0000000000000000e+00
7.3301011772495595e-01 -4.5103587360904784e-01 0.0000000000000000e+00
-8.1386591600597291e-01 -2.5733775167843814e-01 0.0000000000000000e+00
8.4474613313758984e-01 -1.8869498343182226e-01 0.0000000000000000e+00
-8.6405447091610332e-01 -1.5320636162392705e-03 0.0000000000000000e+00
8.3247363185562306e-01 8.0173952768268886e-02 0.0000000000000000e+00
-8.1264703129473315e-01 2.8273514986688553e-01 0.0000000000000000e+00
7.8831200167745519e-01 3.5258530170119745e-01 0.0000000000000000e+00
-6.8187717477973531e-01 5.2783796812598105e-01 0.0000000000000000e+00
6.3403538355750044e-01 5.8603277097082551e-01 0.0000000000000000e+00
-4.5651569632403477e-01 7.0888594089946033e-01 0.0000000000000000e+00
4.1279982172543317e-01 7.5755402061746191e-01 0.0000000000000000e+00
-2.2549579408355569e-01 8.3691558110316810e-01 0.0000000000000000e+00
1.4990975312265650e-01 8.4743697285364494e-01 0.0000000000000000e+00
-2.9250052805326683e-03 6.1170277320095376e-02 0.0000000000000000e+00
-5.8499956986975436e-03 -5.8530285555480142e-02 0.0000000000000000e+00
1.4512896120883436e-02 -5.9130365918445692e-02 0.0000000000000000e+00
-2.4656119861612570e-02 -5.2736801534198838e-02 0.0000000000000000e+00
3.4591862767065898e-02 -5.6141536260991498e-02 0.0000000000000000e+00
-4.4664915599875156e-02 -4.7507598846311352e-02 0.0000000000000000e+00
5.7492789492635553e-02 -4.6776991654549301e-02 0.0000000000000000e+00
-6.6315378273354472e-02 -3.4731923885641051e-02 0.0000000000000000e+00
6.6199164870936023e-02 -2.4958440663162992e-02 0.0000000000000000e+00
-6.7213881461535854e-02 -1.0503639188743091e-02 0.0000000000000000e+00
6.8355747774733883e-02 -2.3190082175662510e-03 0.0000000000000000e+00
-5.7414477052647038e-02 9.3010771048202302e-03 0.0000000000000000e+00
6.0774271602508742e-02 1.7412788729640267e-02 0.0000000000000000e+00
-5.3497256728909100e-02 2.9000585496365784e-02 0.0000000000000000e+00
5.4108444889949009e-02 3.7921307749235959e-02 0.0000000000000000e+00
-4.4223620613644744e-02 4.8217546729651159e-02 0.0000000000000000e+00
4.1813139333104120e-02 5.8491534323483550e-02 0.0000000000000000e+00
-2.6947548355470065e-02 6.1008294611023722e-02 0.0000000000000000e+00
1.9599848965614852e-02 6.3517266421610624e-02 0.0000000000000000e+00
2.3288337546068860e-02 4.5448508423730244e-02 0.0000000000000000e+00
-1.6200375159049710e-02 6.1623556124319114e-02 0.0000000000000000e+00
-3.3008140389797991e-02 5.1502804381222747e-02 0.0000000000000000e+00
6.8048859049437957e-02 3.2859620006033700e-02 0.0000000000000000e+00
4.0668829177880214e-02 4.1382217393793892e-02 0.0000000000000000e+00
-4.1881852308443823e-02 3.2904467269582356e-02 0.0000000000000000e+00
-6.2054900119525892e-02 2.1536650328142292e-02 0.0000000000000000e+00
6.5637418160840233e-02 8.5865381622439851e-03 0.0000000000000000e+00
6.1716934852062970e-02 -1.2806700094460721e-02 0.0000000000000000e+00
-6.7298791503853345e-02 1.3454066761800650e-04 0.0000000000000000e+00
-5.5571141287718062e-02 -4.2085919802859861e-02 0.0000000000000000e+00
-5.9922634421931895e-02 -1.9470339648472723e-02 0.0000000000000000e+00
4.0234553369162290e-02 -4.5783561394707795e-02 0.0000000000000000e+00
5.1696944154418452e-02 -3.0417023686315808e-02 0.0000000000000000e+00
-3.4916035381072810e-02 -4.9613028279610880e-02 0.0000000000000000e+00
-1.8492736145255755e-02 -6.9700271249461890e-02 0.0000000000000000e+00
2.4965258713605044e-02 -5.9053609103196382e-02 0.0000000000000000e+00
4.3005746016137499e-03 -5.9878324254832471e-02 0.0000000000000000e+00
7.2393103888690009e-03 5.8062469740629036e-02 0.0000000000000000e+00
-3.9985783271080891e-02 8.5782747789934877e-01 0.0000000000000000e+00
-9.9302090072609095e-03 6.9685413328517659e-02 0.0000000000000000e+00
5.7775153519562833e-02 8.5782763343471158e-01 0.0000000000000000e+00
8.7998995489798424e-03 7.3349279310531168e-01 0.0000000000000000e+00
-6.2549568600661035e-02 7.2371056825111912e-01 0.0000000000000000e+00
-2.0436515167709078e-02 6.1590869625119160e-01 0.0000000000000000e+00
-7.0653749573255598e-02 5.9744859508000125e-01 0.0000000000000000e+00
3.1739339026372528e-02 6.1658102452458063e-01 0.0000000000000000e+00
5.0345548152390873e-03 5.1538271736438535e-01 0.0000000000000000e+00
4.3099111406717766e-02 5.0758339879572123e-01 0.0000000000000000e+00
1.9903827902598949e-02 4.2104041932722391e-01 0.0000000000000000e+00
4.9638903984732863e-02 4.1140255333928000e-01 0.0000000000000000e+00
8.2899723717335394e-02 4.9800160663638005e-01 0.0000000000000000e+00
7.6967013948065141e-02 3.9391014640114397e-01 0.0000000000000000e+00
1.1402912455053676e-01 4.6105462109558831e-01 0.0000000000000000e+00
-1.0071387317620896e-02 4.2027691124656663e-01 0.0000000000000000e+00
9.8876212600060714e-02 3.6590655802961375e-01 0.0000000000000000e+00
1.4038274105811016e-01 4.2797959778415207e-01 0.0000000000000000e+00
1.1494352359516312e-01 3.3305145745324993e-01 0.0000000000000000e+00
1.5741818961606763e-01 3.8592393027859578e-01 0.0000000000000000e+00
2.6758610602375995e-02 3.3206154015235495e-01 0.0000000000000000e+00
1.2400638910423206e-01 2.9499906628034811e-01 0.0000000000000000e+00
1.6614905781182870e-01 3.4017016802939160e-01 0.0000000000000000e+00
6.6326792531135950e-02 3.0103991005637309e-01 0.0000000000000000e+00
1.6201371514218096e-01 5.3806466258552432e-01 0.0000000000000000e+00
2.1865280108205867e-01 4.4821965532773156e-01 0.0000000000000000e+00
2.1528698364054491e-01 3.7930719106770611e-01 0.0000000000000000e+00
1.6578741977734024e-01 2.9135935488897002e-01 0.0000000000000000e+00
2.1078117658586781e-01 3.2184141381941073e-01 0.0000000000000000e+00
2.6968771409672443e-01 4.0800779540737825e-01 0.0000000000000000e+00
2.5875647760097487e-01 3.4324265012171268e-01 0.0000000000000000e+00
1.9685303870244827e-01 2.6535844218715210e-01 0.0000000000000000e+00
2.3830999543084200e-01 2.8105728783472922e-01 0.0000000000000000e+00
3.0881544075471051e-01 3.5535633202485617e-01 0.0000000000000000e+00
2.7996510273221970e-01 2.8778518620613835e-01 0.0000000000000000e+00
1.7516209308667477e-01 2.1131425090715389e-01 0.0000000000000000e+00
3.5809910911685888e-01 3.5522742548265596e-01 0.0000000000000000e+00
3.1985646793068856e-01 2.8488491833091290e-01 0.0000000000000000e+00
4.0260201927971334e-01 3.4197438673700914e-01 0.0000000000000000e+00
3.5527471656437354e-01 2.7255215465389765e-01 0.0000000000000000e+00
2.7452308791264102e-01 2.2166821713852364e-01 0.0000000000000000e+00
3.0093163912640974e-01 2.1007486626395458e-01 0.0000000000000000e+00
3.8561024357120888e-01 2.5228084167266668e-01 0.0000000000000000e+00
3.2125524124562782e-01 1.9201892241724752e-01 0.0000000000000000e+00
4.0619090393502538e-01 2.2426803092181230e-01 0.0000000000000000e+00
3.3409962347355943e-01 1.6857191371524896e-01 0.0000000000000000e+00
4.2025584602777738e-01 1.9076651936122618e-01 0.0000000000000000e+00
3.3910910756973728e-01 1.4161999278436196e-01 0.0000000000000000e+00
4.2069116614286489e-01 1.5268095312501903e-01 0.0000000000000000e+00
3.3499923075611537e-01 1.1273784102346296e-01 0.0000000000000000e+00
4.1126901208115857e-01 1.1643273664356640e-01 0.0000000000000000e+00
3.2244180236978065e-01 8.4309344039304027e-02 0.0000000000000000e+00
3.9269590436613416e-01 8.1478135301038618e-02 0.0000000000000000e+00
5.0051677276254358e-01 1.5169791225678880e-01 0.0000000000000000e+00
3.0221233084649785e-01 5.7983599889587650e-02 0.0000000000000000e+00
3.6739396391489471e-01 5.0620070130721034e-02 0.0000000000000000e+00
4.6649795183672127e-01 6.8126765817861382e-02 0.0000000000000000e+00