# vtk DataFile Version 3.0
Meshless Data
ASCII
DATASET POLYDATA
POINTS 1043 float
0.994138 0.108119 0.000000
1.090703 0.059136 0.000000
1.088556 0.181234 0.000000
1.047559 0.291305 0.000000
1.185399 0.109358 0.000000
1.090137 -0.063933 0.000000
1.131180 0.270752 0.000000
1.185229 -0.006951 0.000000
1.194290 0.215000 0.000000
1.117804 0.362683 0.000000
1.022385 0.396359 0.000000
1.281250 0.050572 0.000000
1.203693 0.315693 0.000000
1.284579 0.159692 0.000000
1.077018 -0.180090 0.000000
1.193499 -0.128038 0.000000
1.280190 -0.057472 0.000000
1.288433 0.261768 0.000000
1.375774 0.101014 0.000000
1.202403 0.429293 0.000000
0.976621 0.214970 0.000000
0.994138 -0.108119 0.000000
1.296669 -0.138979 0.000000
0.947653 0.319302 0.000000
1.291121 0.367161 0.000000
1.378157 0.206589 0.000000
0.907575 0.419889 0.000000
1.093961 0.482675 0.000000
0.973334 0.496161 0.000000
1.030330 0.566031 0.000000
1.375031 -0.004824 0.000000
0.976621 -0.214970 0.000000
1.164338 -0.241824 0.000000
1.262752 -0.216011 0.000000
1.064484 -0.302978 0.000000
1.235423 -0.288629 0.000000
1.376447 -0.108182 0.000000
0.947653 -0.319302 0.000000
1.381809 0.311694 0.000000
1.294225 0.476720 0.000000
1.368067 -0.218269 0.000000
1.200099 0.534893 0.000000
1.109715 0.592409 0.000000
0.856857 0.515554 0.000000
0.923386 0.605162 0.000000
1.021551 0.652625 0.000000
1.469440 0.043460 0.000000
1.472342 0.148620 0.000000
1.468156 -0.060792 0.000000
1.385986 0.418921 0.000000
1.474634 0.254791 0.000000
1.177630 -0.343549 0.000000
1.012652 -0.411682 0.000000
1.114925 -0.418347 0.000000
1.311654 -0.278089 0.000000
1.205208 -0.427208 0.000000
1.277435 -0.375248 0.000000
1.467098 -0.168359 0.000000
1.478966 0.361522 0.000000
1.567079 0.088869 0.000000
1.568970 0.196996 0.000000
1.561037 -0.014316 0.000000
1.295854 0.583839 0.000000
1.388720 0.527110 0.000000
1.203025 0.640495 0.000000
1.375463 -0.330070 0.000000
1.464362 -0.277120 0.000000
1.481626 0.470378 0.000000
1.571899 0.304769 0.000000
0.830088 0.696319 0.000000
0.931488 0.713527 0.000000
1.110229 0.697099 0.000000
1.022112 0.755736 0.000000
0.796093 0.605174 0.000000
1.205635 0.749213 0.000000
1.113585 0.806185 0.000000
1.561278 -0.116905 0.000000
0.962020 -0.513724 0.000000
1.071101 -0.512659 0.000000
0.907575 -0.419889 0.000000
1.176897 -0.510327 0.000000
1.370687 -0.439335 0.000000
1.279149 -0.488570 0.000000
1.559863 -0.224835 0.000000
0.903993 -0.609671 0.000000
1.014997 -0.610703 0.000000
1.129581 -0.602562 0.000000
1.574570 0.413661 0.000000
1.391354 0.635904 0.000000
1.298495 0.692559 0.000000
1.484270 0.579233 0.000000
1.463968 -0.386374 0.000000
1.558237 -0.333575 0.000000
0.845710 0.785360 0.000000
0.751177 0.793008 0.000000
0.930046 0.814809 0.000000
0.831837 0.866935 0.000000
0.725995 0.687699 0.000000
1.019949 0.862461 0.000000
1.658842 0.031588 0.000000
1.665313 0.137051 0.000000
1.654605 -0.071863 0.000000
1.664719 0.247963 0.000000
1.654883 -0.172179 0.000000
1.577228 0.522534 0.000000
1.666673 0.356917 0.000000
0.856857 -0.515554 0.000000
1.254320 -0.601678 0.000000
1.368365 -0.548222 0.000000
1.188148 -0.675546 0.000000
1.461945 -0.495305 0.000000
1.653301 -0.280829 0.000000
1.668706 0.466776 0.000000
1.754683 0.077983 0.000000
1.746592 -0.032124 0.000000
1.774118 0.179527 0.000000
1.830248 0.086326 0.000000
1.762859 0.302411 0.000000
1.743298 -0.129750 0.000000
1.832879 0.004042 0.000000
1.394013 0.744673 0.000000
1.301128 0.801319 0.000000
1.486905 0.688067 0.000000
1.579431 0.631137 0.000000
1.208236 0.857981 0.000000
1.556120 -0.442392 0.000000
1.649658 -0.389575 0.000000
1.671743 0.575443 0.000000
1.761983 0.414665 0.000000
0.647386 0.762162 0.000000
0.747750 0.917073 0.000000
0.659407 0.868047 0.000000
0.927135 0.919052 0.000000
0.835520 0.975607 0.000000
1.115351 0.914617 0.000000
1.022474 0.971212 0.000000
1.303750 0.910111 0.000000
1.210839 0.966758 0.000000
1.396694 0.853454 0.000000
1.117934 1.023375 0.000000
1.738643 -0.230995 0.000000
0.960210 -0.698637 0.000000
0.796093 -0.605174 0.000000
1.079815 -0.705711 0.000000
0.845560 -0.717479 0.000000
1.011407 -0.770151 0.000000
0.930648 -0.777833 0.000000
1.269410 -0.709836 0.000000
1.364927 -0.657008 0.000000
1.460064 -0.604153 0.000000
1.554739 -0.551263 0.000000
1.739445 -0.337159 0.000000
0.725995 -0.687699 0.000000
0.851975 -0.834637 0.000000
0.747628 -0.794007 0.000000
0.984090 -0.868262 0.000000
1.080689 -0.816948 0.000000
1.173675 -0.765430 0.000000
1.760910 0.523012 0.000000
1.848119 0.472386 0.000000
1.488472 0.796189 0.000000
1.579337 0.737792 0.000000
1.667668 0.684717 0.000000
1.660417 0.779456 0.000000
1.646356 -0.498277 0.000000
1.753619 -0.460234 0.000000
0.930066 1.028175 0.000000
0.561187 0.827689 0.000000
0.664243 0.984075 0.000000
0.747879 1.036981 0.000000
0.559804 0.949602 0.000000
0.838166 1.086587 0.000000
1.025031 1.079986 0.000000
1.830342 -0.096264 0.000000
1.860663 0.152832 0.000000
1.880982 0.251347 0.000000
1.821915 -0.189220 0.000000
1.862589 0.365879 0.000000
1.822385 -0.289838 0.000000
1.774320 0.638431 0.000000
1.840571 0.567858 0.000000
1.362773 -0.765785 0.000000
1.267582 -0.818630 0.000000
1.457245 -0.712905 0.000000
1.553083 -0.660156 0.000000
1.172342 -0.871898 0.000000
1.265746 -0.927406 0.000000
1.645294 -0.607173 0.000000
1.840102 -0.393076 0.000000
1.898748 -0.251186 0.000000
1.925835 0.539594 0.000000
1.910606 0.063733 0.000000
1.935142 0.159139 0.000000
1.913399 -0.050996 0.000000
1.908752 -0.152551 0.000000
1.988071 0.218111 0.000000
1.997016 0.109218 0.000000
1.973194 0.326352 0.000000
1.952428 0.433620 0.000000
1.997016 -0.109218 0.000000
1.488941 0.904280 0.000000
1.399116 0.962282 0.000000
1.593484 0.853131 0.000000
1.306351 1.018927 0.000000
1.746413 0.756263 0.000000
1.708003 0.855629 0.000000
1.213426 1.075551 0.000000
1.719356 -0.556151 0.000000
1.734167 -0.647193 0.000000
1.856685 -0.481714 0.000000
1.817345 -0.567877 0.000000
1.893494 0.643957 0.000000
1.855503 0.746398 0.000000
0.588447 1.042695 0.000000
0.449086 0.992322 0.000000
0.507789 1.056857 0.000000
0.657901 1.104762 0.000000
0.745054 1.143326 0.000000
0.468408 0.883512 0.000000
0.932069 1.136604 0.000000
0.839148 1.193237 0.000000
1.120511 1.132167 0.000000
1.027567 1.188783 0.000000
1.401288 1.070429 0.000000
1.308332 1.127008 0.000000
1.505739 1.021370 0.000000
1.569669 0.949830 0.000000
1.215930 1.184386 0.000000
1.123096 1.241020 0.000000
1.897371 -0.338814 0.000000
1.988071 -0.218111 0.000000
0.892858 -0.927981 0.000000
0.662003 -0.866403 0.000000
0.773811 -0.898037 0.000000
1.077303 -0.924317 0.000000
0.647386 -0.762162 0.000000
0.802593 -0.989409 0.000000
0.982868 -0.978163 0.000000
1.170588 -0.980283 0.000000
0.889340 -1.033726 0.000000
1.360924 -0.874583 0.000000
1.455248 -0.821718 0.000000
1.546654 -0.768654 0.000000
1.643884 -0.714755 0.000000
1.952428 -0.433620 0.000000
1.973194 -0.326352 0.000000
0.687121 -0.958805 0.000000
0.563142 -0.935949 0.000000
0.612979 -1.013244 0.000000
0.711084 -1.052567 0.000000
0.561187 -0.827689 0.000000
1.075461 -1.032992 0.000000
0.980469 -1.085903 0.000000
1.658697 0.945620 0.000000
1.811974 0.846612 0.000000
1.763037 0.944299 0.000000
1.609152 1.031662 0.000000
1.708839 1.039168 0.000000
1.816800 -0.674680 0.000000
1.925835 -0.539594 0.000000
1.893494 -0.643957 0.000000
0.934636 1.245398 0.000000
0.349929 1.034560 0.000000
0.438450 1.100427 0.000000
0.552463 1.137770 0.000000
0.652733 1.200846 0.000000
0.746254 1.249838 0.000000
0.370138 0.928977 0.000000
0.455632 1.201807 0.000000
0.841714 1.302005 0.000000
1.029825 1.296864 0.000000
1.454366 -0.930546 0.000000
1.546978 -0.880146 0.000000
1.359149 -0.983416 0.000000
1.625674 -0.823976 0.000000
1.263920 -1.036268 0.000000
1.752370 -0.764296 0.000000
1.168695 -1.088895 0.000000
1.355379 -1.088851 0.000000
1.261781 -1.144489 0.000000
1.452601 -1.039446 0.000000
1.574502 1.108002 0.000000
1.493996 1.131721 0.000000
1.402388 1.175966 0.000000
1.311954 1.233773 0.000000
1.482050 1.221649 0.000000
1.649541 1.130936 0.000000
1.218899 1.292538 0.000000
1.412181 1.277151 0.000000
1.855503 -0.746398 0.000000
1.811974 -0.846612 0.000000
1.721144 -0.865473 0.000000
0.558190 1.254712 0.000000
0.355261 1.147310 0.000000
0.267528 0.963550 0.000000
0.243273 1.077611 0.000000
0.266074 1.204354 0.000000
0.364211 1.259488 0.000000
0.653383 1.306494 0.000000
0.748791 1.358616 0.000000
0.937168 1.354172 0.000000
0.843568 1.410494 0.000000
1.123865 1.345396 0.000000
1.211081 1.397304 0.000000
1.029780 1.401603 0.000000
1.116948 1.451081 0.000000
1.585320 1.219328 0.000000
1.322685 1.357205 0.000000
1.280403 1.451173 0.000000
0.796908 -1.090958 0.000000
0.885626 -1.139148 0.000000
0.468408 -0.883512 0.000000
0.533759 -1.051282 0.000000
0.617483 -1.102102 0.000000
0.454964 -0.991162 0.000000
0.699701 -1.138251 0.000000
1.073648 -1.141760 0.000000
0.790185 -1.191321 0.000000
0.978588 -1.194603 0.000000
1.166586 -1.197096 0.000000
0.883438 -1.247340 0.000000
1.547257 -0.987800 0.000000
1.646374 -0.940968 0.000000
0.605156 -1.198019 0.000000
0.370138 -0.928977 0.000000
0.437875 -1.099406 0.000000
0.520360 -1.149189 0.000000
0.350705 -1.032427 0.000000
0.697446 -1.243973 0.000000
0.788236 -1.299980 0.000000
1.071826 -1.250508 0.000000
0.976653 -1.303264 0.000000
1.763037 -0.944299 0.000000
0.937844 1.460828 0.000000
0.161782 0.986827 0.000000
0.178439 1.160106 0.000000
0.103561 1.096561 0.000000
0.180455 1.264529 0.000000
0.274804 1.317078 0.000000
0.465218 1.311132 0.000000
0.560452 1.363032 0.000000
0.655863 1.415206 0.000000
0.751341 1.467432 0.000000
0.372118 1.367331 0.000000
0.467526 1.419523 0.000000
0.842723 1.517856 0.000000
1.023738 1.508385 0.000000
1.202130 1.499150 0.000000
1.539161 -1.107806 0.000000
1.437082 -1.128341 0.000000
1.617748 -1.045350 0.000000
1.708839 -1.039168 0.000000
1.358613 -1.199962 0.000000
1.475575 -1.207385 0.000000
1.258588 -1.250308 0.000000
1.335381 -1.277340 0.000000
1.163227 -1.303089 0.000000
1.413583 -1.287674 0.000000
1.585320 -1.219328 0.000000
1.256027 -1.338332 0.000000
1.649541 -1.130936 0.000000
[...]
POINT_DATA 1043
VECTORS velocity float
-0.108119 0.994138 0.000000
-0.032794 0.710781 0.000000
-0.106348 0.671378 0.000000
-0.189122 0.701965 0.000000
-0.038853 0.459527 0.000000
0.048702 0.711358 0.000000
-0.119039 0.511475 0.000000
0.006814 0.473396 0.000000
-0.070062 0.405530 0.000000
-0.149995 0.473817 0.000000
-0.247574 0.655792 0.000000
-0.007718 0.284239 0.000000
-0.086724 0.339881 0.000000
-0.029514 0.262591 0.000000
0.125041 0.702776 0.000000
0.051476 0.437177 0.000000
0.016520 0.285429 0.000000
-0.044349 0.229975 0.000000
-0.008651 0.153930 0.000000
-0.096193 0.277033 0.000000
-0.214970 0.976621 0.000000
0.108119 0.994138 0.000000
0.030482 0.248733 0.000000
-0.319302 0.947653 0.000000
-0.052317 0.190255 0.000000
-0.018609 0.138235 0.000000
-0.419889 0.907575 0.000000
-0.178290 0.413540 0.000000
-0.318286 0.637855 0.000000
-0.235265 0.437141 0.000000
0.003461 0.159649 0.000000
0.214970 0.976621 0.000000
0.099333 0.454312 0.000000
0.052270 0.281932 0.000000
0.190734 0.644671 0.000000
0.074022 0.298741 0.000000
0.014959 0.152890 0.000000
0.319302 0.947653 0.000000
-0.024560 0.115784 0.000000
-0.051604 0.145232 0.000000
0.026753 0.146634 0.000000
-0.092899 0.215757 0.000000
-0.150263 0.288843 0.000000
-0.515554 0.856857 0.000000
-0.367860 0.572278 0.000000
-0.219820 0.351616 0.000000
-0.000245 0.079095 0.000000
-0.005565 0.072112 0.000000
0.005537 0.079847 0.000000
-0.025925 0.089802 0.000000
-0.009360 0.062189 0.000000
0.112498 0.369036 0.000000
0.273516 0.655620 0.000000
0.166673 0.430573 0.000000
0.045166 0.194930 0.000000
0.101251 0.272730 0.000000
0.063561 0.202516 0.000000
0.010854 0.074662 0.000000
-0.010858 0.048906 0.000000
-0.000457 0.032732 0.000000
-0.002565 0.028584 0.000000
0.001996 0.036333 0.000000
-0.044831 0.104292 0.000000
-0.023289 0.064930 0.000000
-0.077902 0.152786 0.000000
0.031561 0.116914 0.000000
0.014901 0.065658 0.000000
-0.010457 0.035892 0.000000
-0.003660 0.023062 0.000000
-0.470053 0.570932 0.000000
-0.301198 0.400912 0.000000
-0.123995 0.204676 0.000000
-0.176313 0.245400 0.000000
-0.605174 0.796093 0.000000
-0.058089 0.099250 0.000000
-0.089717 0.130257 0.000000
0.004389 0.034631 0.000000
0.344376 0.630701 0.000000
0.206493 0.421531 0.000000
0.419889 0.907575 0.000000
0.116964 0.259189 0.000000
0.033804 0.094864 0.000000
0.062662 0.153855 0.000000
0.006453 0.030782 0.000000
0.407706 0.592940 0.000000
0.248655 0.406007 0.000000
0.139179 0.252547 0.000000
-0.003796 0.017050 0.000000
-0.017988 0.042791 0.000000
-0.034099 0.068423 0.000000
-0.008361 0.023964 0.000000
0.016222 0.052238 0.000000
0.007295 0.025142 0.000000
-0.369204 0.404663 0.000000
-0.513540 0.495181 0.000000
-0.237621 0.277443 0.000000
-0.312603 0.305412 0.000000
-0.687699 0.725995 0.000000
-0.129310 0.158845 0.000000
0.000754 0.013055 0.000000
-0.000122 0.010604 0.000000
0.001703 0.013727 0.000000
-0.000875 0.008993 0.000000
0.002583 0.012281 0.000000
-0.003162 0.011578 0.000000
-0.001069 0.006708 0.000000
0.515554 0.856857 0.000000
0.064645 0.127128 0.000000
0.030978 0.069915 0.000000
0.086262 0.145269 0.000000
0.015381 0.038957 0.000000
0.003088 0.010167 0.000000
-0.000872 0.004550 0.000000
0.000231 0.003715 0.000000
0.000401 0.004683 0.000000
-0.000022 0.001940 0.000000
-0.000299 0.001318 0.000000
-0.000296 0.001784 0.000000
0.000909 0.004325 0.000000
-0.000327 0.001844 0.000000
-0.012049 0.025625 0.000000
-0.022685 0.041010 0.000000
-0.005739 0.014244 0.000000
-0.002073 0.006854 0.000000
-0.038013 0.058825 0.000000
0.006951 0.018821 0.000000
0.002988 0.007763 0.000000
-0.000433 0.002793 0.000000
-0.000265 0.001382 0.000000
-0.762162 0.647386 0.000000
-0.367255 0.305262 0.000000
-0.567955 0.440615 0.000000
-0.171062 0.178033 0.000000
-0.209813 0.184728 0.000000
-0.058609 0.076667 0.000000
-0.082333 0.091408 0.000000
-0.012768 0.021982 0.000000
-0.021602 0.031443 0.000000
-0.006724 0.013623 0.000000
-0.033308 0.040563 0.000000
0.001246 0.003789 0.000000
0.279739 0.377572 0.000000
0.605174 0.796093 0.000000
0.151922 0.226617 0.000000
0.436228 0.504911 0.000000
0.186944 0.239588 0.000000
0.269136 0.315638 0.000000
0.045993 0.076875 0.000000
0.025353 0.047731 0.000000
0.012953 0.026547 0.000000
0.005942 0.012796 0.000000
0.001241 0.002677 0.000000
0.687699 0.725995 0.000000
0.324040 0.324523 0.000000
0.528684 0.487846 0.000000
0.160997 0.177082 0.000000
0.112634 0.144130 0.000000
0.075062 0.110247 0.000000
-0.000200 0.000827 0.000000
-0.000487 0.000236 0.000000
-0.003212 0.007572 0.000000
-0.001132 0.003530 0.000000
-0.000275 0.001378 0.000000
-0.000316 0.000534 0.000000
0.002454 0.005315 0.000000
0.000772 0.001274 0.000000
-0.105719 0.100257 0.000000
-0.827689 0.561187 0.000000
-0.385444 0.266336 0.000000
-0.232580 0.172381 0.000000
-0.585816 0.354240 0.000000
-0.125200 0.100876 0.000000
-0.046029 0.047575 0.000000
-0.000265 0.001481 0.000000
-0.000525 0.000366 0.000000
-0.000582 0.000122 0.000000
0.000206 0.001102 0.000000
-0.000533 0.000362 0.000000
0.000296 0.001054 0.000000
-0.000421 0.000440 0.000000
-0.000643 0.000194 0.000000
0.018524 0.029611 0.000000
0.033010 0.047121 0.000000
0.009533 0.016455 0.000000
0.004444 0.007964 0.000000
0.052844 0.066856 0.000000
0.021146 0.025945 0.000000
0.001925 0.003151 0.000000
-0.000233 0.000325 0.000000
-0.000306 0.000569 0.000000
0.000000 0.000000 0.000000
-0.000828 0.000787 0.000000
-0.000770 0.000146 0.000000
-0.000915 0.000980 0.000000
-0.000695 0.000293 0.000000
0.000000 0.000000 0.000000
0.000000 0.000000 0.000000
0.000000 0.000000 0.000000
0.000000 0.000000 0.000000
0.000000 0.000000 0.000000
-0.001325 0.003464 0.000000
-0.002747 0.006233 0.000000
-0.000477 0.001056 0.000000
-0.005734 0.010160 0.000000
-0.000518 0.000023 0.000000
-0.000563 -0.000044 0.000000
-0.010386 0.014744 0.000000
0.000798 0.001277 0.000000
0.000440 0.000545 0.000000
-0.000221 0.000467 0.000000
-0.000053 0.000625 0.000000
0.000000 0.000000 0.000000
0.000000 0.000000 0.000000
-0.385884 0.223633 0.000000
-0.655626 0.304279 0.000000
-0.451378 0.222030 0.000000
-0.236688 0.145185 0.000000
-0.140482 0.095229 0.000000
-0.883512 0.468408 0.000000
-0.058118 0.051382 0.000000
-0.068128 0.051167 0.000000
-0.016194 0.018932 0.000000
-0.022196 0.021951 0.000000
-0.000509 0.002078 0.000000
-0.001737 0.003621 0.000000
0.000034 0.000901 0.000000
-0.000351 0.000823 0.000000
-0.003859 0.005555 0.000000
-0.006402 0.007437 0.000000
-0.000519 0.000587 0.000000
0.000000 0.000000 0.000000
0.202006 0.189458 0.000000
0.576116 0.431478 0.000000
0.362593 0.306611 0.000000
0.078308 0.087065 0.000000
0.762162 0.647386 0.000000
0.234895 0.185938 0.000000
0.106668 0.102925 0.000000
0.033332 0.036570 0.000000
0.133170 0.110600 0.000000
0.012151 0.016509 0.000000
0.006218 0.009110 0.000000
0.002963 0.004451 0.000000
0.001506 0.001802 0.000000
0.000000 0.000000 0.000000
0.000000 0.000000 0.000000
0.399386 0.281000 0.000000
0.615609 0.362682 0.000000
0.410908 0.243538 0.000000
0.255757 0.168320 0.000000
0.827689 0.561187 0.000000
0.048196 0.046734 0.000000
0.064489 0.054527 0.000000
-0.000487 0.000237 0.000000
0.000000 0.000000 0.000000
0.000000 0.000000 0.000000
-0.000287 0.000399 0.000000
0.000000 0.000000 0.000000
-0.000431 0.000358 0.000000
0.000000 0.000000 0.000000
0.000000 0.000000 0.000000
-0.027509 0.023226 0.000000
-0.674226 0.235169 0.000000
-0.440535 0.179672 0.000000
-0.280185 0.140122 0.000000
-0.145843 0.082452 0.000000
-0.074095 0.046853 0.000000
-0.928977 0.370138 0.000000
-0.259915 0.102112 0.000000
-0.031422 0.022386 0.000000
-0.008856 0.008706 0.000000
0.003662 0.004419 0.000000
0.001396 0.002103 0.000000
0.007191 0.008065 0.000000
0.000943 0.001100 0.000000
0.012242 0.012682 0.000000
0.000638 0.000153 0.000000
0.018693 0.017474 0.000000
0.003859 0.003754 0.000000
0.006217 0.005171 0.000000
0.001955 0.002033 0.000000
0.000068 -0.000003 0.000000
0.000452 -0.000106 0.000000
0.000271 0.000075 0.000000
-0.000279 0.000623 0.000000
0.000079 -0.000428 0.000000
0.000000 0.000000 0.000000
-0.000969 0.001567 0.000000
-0.000021 -0.000620 0.000000
0.000000 0.000000 0.000000
0.000000 0.000000 0.000000
0.000719 0.000723 0.000000
-0.145672 0.067580 0.000000
-0.418390 0.133671 0.000000
-0.963550 0.267528 0.000000
-0.659686 0.155698 0.000000
-0.362765 0.084366 0.000000
-0.229330 0.069578 0.000000
-0.074532 0.039466 0.000000
-0.033034 0.019950 0.000000
-0.010630 0.008858 0.000000
-0.011948 0.008401 0.000000
-0.001849 0.002358 0.000000
-0.000033 0.000112 0.000000
-0.002694 0.002593 0.000000
-0.000247 0.000090 0.000000
0.000000 0.000000 0.000000
-0.000442 -0.000214 0.000000
-0.000391 -0.000355 0.000000
0.153672 0.108532 0.000000
0.079551 0.058504 0.000000
0.883512 0.468408 0.000000
0.439167 0.217118 0.000000
0.279795 0.151737 0.000000
0.657081 0.293137 0.000000
0.178130 0.105346 0.000000
0.026515 0.021870 0.000000
0.092486 0.058051 0.000000
0.034509 0.025151 0.000000
0.009283 0.006849 0.000000
0.041468 0.026401 0.000000
0.000420 0.000952 0.000000
-0.000062 0.000814 0.000000
0.179862 0.086084 0.000000
0.928977 0.370138 0.000000
0.447946 0.172122 0.000000
0.295083 0.128094 0.000000
0.684527 0.223624 0.000000
0.099058 0.052064 0.000000
0.046198 0.025272 0.000000
0.012729 0.008419 0.000000
0.016132 0.009568 0.000000
0.000000 0.000000 0.000000
-0.003055 0.002604 0.000000
-0.986827 0.161782 0.000000
-0.494132 0.081553 0.000000
-0.684296 0.071448 0.000000
-0.288960 0.045200 0.000000
-0.188679 0.042307 0.000000
-0.132832 0.049541 0.000000
-0.069554 0.030495 0.000000
-0.031773 0.016295 0.000000
-0.011992 0.007207 0.000000
-0.113060 0.033053 0.000000
-0.060272 0.021547 0.000000
-0.003409 0.002479 0.000000
-0.000592 0.000228 0.000000
-0.000055 -0.000577 0.000000
0.000272 0.000754 0.000000
0.001177 0.001545 0.000000
-0.000387 0.000427 0.000000
0.000000 0.000000 0.000000
0.001243 0.001555 0.000000
0.000221 0.001194 0.000000
0.002515 0.001753 0.000000
0.000405 0.001055 0.000000
0.003909 0.002130 0.000000
-0.000300 0.001060 0.000000
0.000000 0.000000 0.000000
0.000859 0.000720 0.000000
0.000000 0.000000 0.000000
0.000000 0.000000 0.000000
0.000000 0.000000 0.000000
0.000000 0.000000 0.000000
-0.028087 0.012123 0.000000
-0.407660 0.035705 0.000000
-0.720941 -0.001001 0.000000
-0.499410 0.009209 0.000000
-0.998533 0.054139 0.000000
-0.147900 0.022375 0.000000
-0.222810 0.018594 0.000000
-0.089274 0.019340 0.000000
-0.048179 0.013786 0.000000
-0.010933 0.005644 0.000000
-0.003269 0.002058 0.000000
-0.000597 0.000353 0.000000
-0.000350 -0.000554 0.000000
-0.000789 0.000439 0.000000
-0.000469 -0.000518 0.000000
0.000000 0.000000 0.000000
0.000000 0.000000 0.000000
0.000000 0.000000 0.000000
0.018599 0.009849 0.000000
0.455556 0.125105 0.000000
0.699848 0.145253 0.000000
0.294327 0.097780 0.000000
0.177624 0.067229 0.000000
0.101053 0.042957 0.000000
0.963550 0.267528 0.000000
0.047772 0.021759 0.000000
0.005209 0.002393 0.000000
0.019572 0.008977 0.000000
0.006405 0.002638 0.000000
0.001350 0.000427 0.000000
-0.000318 0.000783 0.000000
0.006765 0.002493 0.000000
0.093501 0.030947 0.000000
0.045979 0.016909 0.000000
0.161330 0.045610 0.000000
0.444114 0.075321 0.000000
0.663085 0.062991 0.000000
0.267101 0.061283 0.000000
0.986827 0.161782 0.000000
0.019027 0.007255 0.000000
0.006381 0.002277 0.000000
0.001652 0.000180 0.000000
0.001529 -0.000052 0.000000
-0.000427 -0.000369 0.000000
-0.707003 -0.068260 0.000000
-0.495943 -0.026906 0.000000
-0.317868 -0.000153 0.000000
-0.998533 -0.054139 0.000000
-0.338660 -0.027837 0.000000
-0.106029 0.008929 0.000000
-0.065105 0.009490 0.000000
-0.157677 0.002186 0.000000
-0.035496 0.007628 0.000000
-0.022858 0.008170 0.000000
-0.009115 0.003949 0.000000
-0.002762 0.001604 0.000000
-0.000858 0.000306 0.000000
-0.000576 0.000099 0.000000
-0.016851 0.004942 0.000000
-0.006925 0.002436 0.000000
-0.000513 -0.000354 0.000000
0.000000 0.000000 0.000000
0.000000 0.000000 0.000000
0.000000 0.000000 0.000000
0.000007 0.000430 0.000000
0.000000 0.000000 0.000000
0.000314 0.000218 0.000000
0.000000 0.000000 0.000000
-0.001461 0.000706 0.000000
-0.207972 -0.013507 0.000000
-0.986827 -0.161782 0.000000
-0.449427 -0.066155 0.000000
-0.683982 -0.135352 0.000000
-0.260107 -0.036884 0.000000
-0.043133 0.003727 0.000000
-0.069379 0.001729 0.000000
-0.023908 0.003379 0.000000
-0.102768 -0.004528 0.000000
-0.011204 0.002655 0.000000
-0.004890 0.001546 0.000000
-0.002759 0.000660 0.000000
-0.000469 -0.000538 0.000000
-0.000413 -0.000305 0.000000
0.000000 0.000000 0.000000
0.000000 0.000000 0.000000
0.001248 0.000119 0.000000
0.239250 0.033866 0.000000
0.143492 0.028751 0.000000
0.361892 0.029727 0.000000
0.998533 0.054139 0.000000
0.470979 0.004411 0.000000
0.724457 -0.012210 0.000000
0.081138 0.020149 0.000000
0.040734 0.011517 0.000000
0.017196 0.005127 0.000000
0.005568 0.001680 0.000000
0.000378 -0.000036 0.000000
0.000398 0.000090 0.000000
0.001604 0.000472 0.000000
0.000443 0.000041 0.000000
0.000000 0.000000 0.000000
0.000132 0.000257 0.000000
0.033399 0.006645 0.000000
0.014297 0.003088 0.000000
0.065683 0.011000 0.000000
0.004704 0.000780 0.000000
0.116766 0.014671 0.000000
0.025480 0.003098 0.000000
0.185839 0.013007 0.000000
0.278268 0.002737 0.000000
0.532471 -0.032900 0.000000
0.998533 -0.054139 0.000000
0.351682 -0.020287 0.000000
0.683547 -0.082340 0.000000
0.438951 -0.049477 0.000000
0.050010 0.004923 0.000000
0.000426 -0.000050 0.000000
0.000124 0.000231 0.000000
-0.000487 0.000329 0.000000
0.000000 0.000000 0.000000
0.000000 0.000000 0.000000
-0.963550 -0.267528 0.000000
-0.457813 -0.117730 0.000000
-0.668147 -0.210590 0.000000
-0.286089 -0.062795 0.000000
-0.136946 -0.016203 0.000000
-0.168335 -0.032757 0.000000
-0.060634 -0.005513 0.000000
-0.025470 0.001026 0.000000
-0.041329 -0.000976 0.000000
-0.014507 0.001133 0.000000
-0.006865 0.000976 0.000000
-0.001298 0.000077 0.000000
-0.001779 0.000704 0.000000
-0.000677 0.000058 0.000000
0.000000 0.000000 0.000000
0.000000 0.000000 0.000000
-0.000583 -0.000556 0.000000
-0.000644 -0.000251 0.000000
-0.080858 -0.013399 0.000000
-0.414738 -0.148086 0.000000
-0.590233 -0.262399 0.000000
-0.268605 -0.082382 0.000000
-0.178416 -0.046876 0.000000
-0.928977 -0.370138 0.000000
-0.099859 -0.024573 0.000000
-0.007472 0.000062 0.000000
-0.004068 0.000141 0.000000
-0.013315 0.000129 0.000000
-0.022083 -0.001100 0.000000
-0.001329 -0.000311 0.000000
-0.031694 -0.003737 0.000000
-0.000444 -0.000824 0.000000
-0.000237 -0.001067 0.000000
-0.001282 -0.000550 0.000000
-0.000755 -0.001101 0.000000
0.000000 0.000000 0.000000
0.000000 0.000000 0.000000
0.000000 0.000000 0.000000
0.000000 0.000000 0.000000
0.087328 0.004719 0.000000
0.136957 -0.000000 0.000000
0.200108 -0.012153 0.000000
0.034174 0.000852 0.000000
0.706168 -0.158187 0.000000
0.463339 -0.083978 0.000000
0.276735 -0.037864 0.000000
0.502619 -0.124665 0.000000
0.986827 -0.161782 0.000000
0.010735 0.001596 0.000000
0.003983 0.000129 0.000000
0.000715 -0.000456 0.000000
0.001201 -0.000577 0.000000
-0.000215 0.000253 0.000000
0.000000 0.000000 0.000000
0.007480 0.000470 0.000000
0.002863 -0.000110 0.000000
0.017690 0.000920 0.000000
0.000041 -0.000465 0.000000
0.059563 -0.001270 0.000000
0.021198 -0.001266 0.000000
0.004831 0.000096 0.000000
0.010603 -0.000328 0.000000
0.001341 0.000054 0.000000
0.093052 -0.006705 0.000000
0.133487 -0.017843 0.000000
0.310206 -0.068560 0.000000
0.635835 -0.211667 0.000000
0.375730 -0.114643 0.000000
0.171594 -0.034919 0.000000
0.963550 -0.267528 0.000000
0.207921 -0.058988 0.000000
0.000000 0.000000 0.000000
0.000000 0.000000 0.000000
-0.350051 -0.155067 0.000000
-0.592520 -0.346425 0.000000
-0.226589 -0.087843 0.000000
-0.360016 -0.196038 0.000000
-0.127905 -0.041849 0.000000
-0.883512 -0.468408 0.000000
-0.219807 -0.106167 0.000000
-0.042189 -0.008362 0.000000
-0.052392 -0.014850 0.000000
-0.009989 -0.000498 0.000000
-0.014181 -0.001722 0.000000
-0.006194 -0.000066 0.000000
-0.003361 -0.000223 0.000000
-0.001588 -0.000405 0.000000
0.000000 0.000000 0.000000
0.000000 0.000000 0.000000
-0.000587 -0.000844 0.000000
-0.018967 -0.004054 0.000000
-0.121415 -0.051440 0.000000
-0.370080 -0.244809 0.000000
-0.827689 -0.561187 0.000000
-0.218256 -0.128363 0.000000
-0.567867 -0.418063 0.000000
-0.057764 -0.021320 0.000000
-0.023089 -0.007074 0.000000
-0.000589 -0.000667 0.000000
-0.001334 -0.000295 0.000000
0.000000 0.000000 0.000000
-0.002150 0.000191 0.000000
-0.003322 0.000182 0.000000
-0.004988 -0.000348 0.000000
0.000000 0.000000 0.000000
0.036775 -0.003521 0.000000
0.056963 -0.008142 0.000000
0.080407 -0.016179 0.000000
0.005646 -0.000810 0.000000
0.002452 0.000055 0.000000
0.011973 -0.001903 0.000000
0.001418 0.000345 0.000000
0.928977 -0.370138 0.000000
0.418794 -0.166627 0.000000
0.616351 -0.292872 0.000000
0.243359 -0.089673 0.000000
0.104343 -0.028150 0.000000
0.411567 -0.198652 0.000000
0.000555 -0.000328 0.000000
0.000169 0.000359 0.000000
0.000000 0.000000 0.000000
0.000671 0.000425 0.000000
0.020262 -0.003563 0.000000
0.002812 -0.000680 0.000000
0.001069 0.000070 0.000000
0.005730 -0.001562 0.000000
0.000326 0.000515 0.000000
0.000000 0.000000 0.000000
0.000000 0.000000 0.000000
0.031294 -0.006788 0.000000
0.043765 -0.011878 0.000000
0.125255 -0.043581 0.000000
0.883512 -0.468408 0.000000
0.257324 -0.117429 0.000000
0.417089 -0.238872 0.000000
0.608224 -0.374905 0.000000
0.139927 -0.060648 0.000000
0.055947 -0.018798 0.000000
0.065887 -0.027280 0.000000
-0.120585 -0.062886 0.000000
-0.112121 -0.070191 0.000000
-0.353857 -0.286669 0.000000
-0.762162 -0.647386 0.000000
-0.204091 -0.143815 0.000000
-0.515024 -0.470594 0.000000
-0.358513 -0.332811 0.000000
-0.059897 -0.027588 0.000000
-0.246074 -0.230293 0.000000
-0.057594 -0.032307 0.000000
-0.006908 -0.001344 0.000000
-0.024691 -0.009800 0.000000
-0.008328 -0.002692 0.000000
-0.000173 0.000339 0.000000
-0.000362 0.000287 0.000000
-0.000550 -0.000338 0.000000
0.000204 -0.000293 0.000000
-0.001135 0.000062 0.000000
0.000473 -0.000211 0.000000
-0.000560 -0.000729 0.000000
0.000000 0.000000 0.000000
-0.001628 -0.000341 0.000000
-0.024991 -0.012244 0.000000
-0.169995 -0.141152 0.000000
-0.098146 -0.072108 0.000000
-0.468719 -0.541931 0.000000
-0.337498 -0.361019 0.000000
-0.051730 -0.034149 0.000000
-0.687699 -0.725995 0.000000
-0.008882 -0.003688 0.000000
-0.002356 -0.001044 0.000000
0.000000 0.000000 0.000000
0.000000 0.000000 0.000000
0.000128 -0.000344 0.000000
0.000000 0.000000 0.000000
0.000168 -0.000409 0.000000
0.009813 -0.002669 0.000000
0.015418 -0.004765 0.000000
0.021113 -0.007411 0.000000
0.000311 0.000515 0.000000
0.000660 0.000371 0.000000
0.001498 -0.000374 0.000000
0.000000 0.000000 0.000000
0.002483 -0.000950 0.000000
0.569325 -0.438885 0.000000
0.393673 -0.271697 0.000000
0.252550 -0.138573 0.000000
0.267485 -0.170341 0.000000
0.143492 -0.075192 0.000000
0.827689 -0.561187 0.000000
0.071898 -0.035877 0.000000
0.026548 -0.010848 0.000000
0.142772 -0.090991 0.000000
0.229072 -0.173872 0.000000
0.004431 -0.001862 0.000000
0.001256 -0.000625 0.000000
0.000678 0.000441 0.000000
0.000000 0.000000 0.000000
0.000000 0.000000 0.000000
0.000833 0.000243 0.000000
0.000303 -0.000032 0.000000
0.006565 -0.002823 0.000000
0.008646 -0.003872 0.000000
0.030502 -0.014877 0.000000
0.358861 -0.298853 0.000000
0.483574 -0.467189 0.000000
0.305302 -0.294940 0.000000
0.073188 -0.043519 0.000000
0.762162 -0.647386 0.000000
0.227587 -0.203610 0.000000
0.032382 -0.018559 0.000000
0.010738 -0.005422 0.000000
0.012052 -0.007076 0.000000
-0.023765 -0.013853 0.000000
-0.043079 -0.032740 0.000000
-0.020325 -0.013695 0.000000
-0.079594 -0.067792 0.000000
-0.130018 -0.125211 0.000000
-0.190322 -0.208701 0.000000
-0.405506 -0.579213 0.000000
-0.271981 -0.350443 0.000000
-0.274483 -0.421741 0.000000
-0.605174 -0.796093 0.000000
-0.095635 -0.106381 0.000000
-0.136644 -0.174511 0.000000
-0.008423 -0.004078 0.000000
-0.060074 -0.058796 0.000000
-0.008010 -0.004574 0.000000
-0.000118 -0.000570 0.000000
-0.002230 -0.001159 0.000000
-0.000577 -0.001011 0.000000
0.000000 0.000000 0.000000
0.000000 0.000000 0.000000
0.000000 0.000000 0.000000